# Probe 0 (0 0.05 0.025)
# Probe 1 (0.25 0.05 0.025)
# Probe 2 (0.5 0.05 0.025)
# Probe 3 (0.75 0.05 0.025)
# Probe 4 (0.1 0.05 0.025)
# Probe 5 (0.4 0.05 -0.025)
# Probe 6 (0.6 0.05 -0.025)
# Probe 7 (0.8 0.05 -0.025)
# Probe 8 (1 0.05 -0.025)
# Probe 9 (1.2 0.05 -0.025)
# Time        0             1             2             3             4             5             6             7             8             9            
0             (0 0 0)       (0 0 0)       (0 0 0)       (0 0 0)       (0 0 0)       (0 0 0)       (0 0 0)       (0 0 0)       (0 0 0)       (0 0 0)      
0.025         (0.0077099 -1.78523e-09 9.95789e-06) (0.0150838 1.95907e-11 -2.02833e-05) (0.00831207 1.7051e-09 -0.00158468) (0.00754529 -6.92269e-10 -3.20595e-05) (0.0150649 -5.24054e-09 -5.58375e-08) (0.000330401 -2.42126e-08 -0.0080778) (0.00737822 -3.02199e-09 -0.000352332) (0.00752458 -2.97097e-09 -1.53229e-05) (0.00753092 2.17042e-09 -6.5259e-07) (0.00753114 -1.33712e-11 -4.3347e-09)
0.05          (0.00850626 -3.65422e-10 2.09084e-05) (0.0150895 -4.54603e-10 -2.01846e-05) (0.00831452 -5.83093e-10 -0.00158772) (0.00754656 -5.95485e-10 -3.20992e-05) (0.015071 -3.36671e-10 1.23916e-07) (0.000324422 -2.68269e-09 -0.00800786) (0.00737921 3.35833e-10 -0.000352765) (0.00752582 -2.02868e-10 -1.53364e-05) (0.00753234 -5.63585e-10 -6.55209e-07) (0.00753267 -2.39578e-10 -4.21036e-09)
0.075         (0.00917243 3.7063e-11 3.09242e-05) (0.0150959 -4.79583e-11 -2.00821e-05) (0.00831731 1.27443e-10 -0.00159078) (0.00754822 -8.70602e-12 -3.21237e-05) (0.0150777 3.08198e-11 3.37596e-07) (0.000318013 -1.16672e-10 -0.00793385) (0.00738055 -4.00529e-11 -0.000353199) (0.00752747 -5.7672e-11 -1.53457e-05) (0.00753398 5.19411e-11 -6.55763e-07) (0.00753425 -2.94764e-11 -3.55069e-09)
0.1           (0.00968953 3.32789e-11 3.97488e-05) (0.0151024 -5.14679e-11 -1.99909e-05) (0.00832006 1.17929e-10 -0.00159364) (0.00754986 -1.46085e-12 -3.21486e-05) (0.0150844 4.23133e-11 5.64065e-07) (0.000311412 -5.38923e-10 -0.00785898) (0.00738189 -3.70594e-11 -0.000353598) (0.0075291 -5.99162e-11 -1.53534e-05) (0.00753561 5.39195e-11 -6.55676e-07) (0.00753588 -1.5512e-11 -3.60004e-09)
0.125         (0.0100916 2.94631e-11 4.76131e-05) (0.0151088 -5.56088e-11 -1.99105e-05) (0.00832274 1.16487e-10 -0.00159629) (0.00755149 -4.76929e-12 -3.21701e-05) (0.0150911 5.02805e-11 7.94846e-07) (0.000304613 -5.47139e-10 -0.00778391) (0.00738325 -3.51059e-11 -0.00035396) (0.00753071 -6.24421e-11 -1.53594e-05) (0.00753724 5.30577e-11 -6.55514e-07) (0.0075375 -1.09176e-11 -3.66586e-09)
0.15          (0.0104136 2.54743e-11 5.47536e-05) (0.0151152 -5.83352e-11 -1.9838e-05) (0.00832535 1.15831e-10 -0.00159876) (0.0075531 -5.0821e-12 -3.21888e-05) (0.0150977 5.8076e-11 1.02493e-06) (0.000297612 -4.0264e-10 -0.00770872) (0.0073846 -3.40131e-11 -0.000354296) (0.00753231 -6.4101e-11 -1.53642e-05) (0.00753884 5.18236e-11 -6.55301e-07) (0.00753911 -1.02539e-11 -3.7408e-09)
0.175         (0.0106806 2.0951e-11 6.13305e-05) (0.0151215 -6.04619e-11 -1.97697e-05) (0.00832792 1.15332e-10 -0.00160115) (0.00755469 -3.62555e-12 -3.22064e-05) (0.0151042 6.28337e-11 1.25159e-06) (0.000290409 -3.1055e-10 -0.00763322) (0.00738594 -3.32735e-11 -0.000354619) (0.00753389 -6.48943e-11 -1.53684e-05) (0.00754042 5.07583e-11 -6.55069e-07) (0.00754069 -1.06269e-11 -3.81905e-09)
0.2           (0.0109092 1.62055e-11 6.7439e-05) (0.0151277 -6.21934e-11 -1.9703e-05) (0.00833048 1.1424e-10 -0.00160353) (0.00755626 -2.11415e-12 -3.22241e-05) (0.0151106 6.60578e-11 1.47345e-06) (0.000282959 -2.8013e-10 -0.00755692) (0.00738725 -3.27588e-11 -0.000354944) (0.00753544 -6.53154e-11 -1.53728e-05) (0.00754198 4.99149e-11 -6.54846e-07) (0.00754225 -1.10691e-11 -3.89846e-09)
0.225         (0.01111 1.14329e-11 7.31334e-05) (0.0151338 -6.37262e-11 -1.96375e-05) (0.00833305 1.12828e-10 -0.00160594) (0.0075578 -8.85096e-13 -3.22426e-05) (0.0151169 6.85919e-11 1.68992e-06) (0.00027516 -2.70781e-10 -0.00747919) (0.00738854 -3.23599e-11 -0.000355278) (0.00753697 -6.55489e-11 -1.53777e-05) (0.00754352 4.92331e-11 -6.54644e-07) (0.00754378 -1.13555e-11 -3.97846e-09)
0.25          (0.0112898 6.742e-12 7.84449e-05) (0.0151399 -6.515e-11 -1.95741e-05) (0.00833563 1.11291e-10 -0.00160837) (0.00755932 8.93338e-14 -3.2262e-05) (0.0151232 7.07858e-11 1.90085e-06) (0.000266921 -2.67762e-10 -0.00739963) (0.00738981 -3.20222e-11 -0.000355622) (0.00753848 -6.5669e-11 -1.5383e-05) (0.00754503 4.86591e-11 -6.54465e-07) (0.0075453 -1.15236e-11 -4.05908e-09)
0.275         (0.0114531 2.19553e-12 8.33926e-05) (0.0151458 -6.64915e-11 -1.95136e-05) (0.00833821 1.09666e-10 -0.00161082) (0.00756082 8.94656e-13 -3.22819e-05) (0.0151293 7.28006e-11 2.10632e-06) (0.000258184 -2.69691e-10 -0.0073181) (0.00739105 -3.1727e-11 -0.000355973) (0.00753997 -6.57166e-11 -1.53887e-05) (0.00754652 4.81531e-11 -6.54303e-07) (0.00754679 -1.16427e-11 -4.14042e-09)
0.3           (0.0116032 -2.17426e-12 8.79901e-05) (0.0151517 -6.77716e-11 -1.94568e-05) (0.0083408 1.07969e-10 -0.00161326) (0.0075623 1.6008e-12 -3.23021e-05) (0.0151354 7.47009e-11 2.30654e-06) (0.000248893 -2.75424e-10 -0.00723459) (0.00739228 -3.14642e-11 -0.000356328) (0.00754143 -6.57163e-11 -1.53945e-05) (0.007548 4.76912e-11 -6.54152e-07) (0.00754827 -1.17549e-11 -4.2225e-09)
0.325         (0.0117424 -6.35188e-12 9.22486e-05) (0.0151575 -6.90057e-11 -1.9404e-05) (0.00834338 1.06228e-10 -0.00161567) (0.00756376 2.24997e-12 -3.23223e-05) (0.0151414 7.6512e-11 2.50179e-06) (0.000239105 -2.82141e-10 -0.00714952) (0.00739349 -3.12222e-11 -0.000356683) (0.00754288 -6.56831e-11 -1.54004e-05) (0.00754945 4.72512e-11 -6.54005e-07) (0.00754972 -1.18776e-11 -4.30535e-09)
0.35          (0.0118721 -1.0333e-11 9.61784e-05) (0.0151632 -7.02328e-11 -1.93552e-05) (0.00834596 1.04486e-10 -0.00161805) (0.00756521 2.87076e-12 -3.23423e-05) (0.0151473 7.82473e-11 2.69233e-06) (0.000228865 -2.86642e-10 -0.00706325) (0.00739468 -3.09958e-11 -0.000357037) (0.00754431 -6.56278e-11 -1.54063e-05) (0.00755088 4.68276e-11 -6.53858e-07) (0.00755115 -1.20116e-11 -4.38891e-09)
0.375         (0.0119939 -1.41247e-11 9.979e-05) (0.0151688 -7.14724e-11 -1.93104e-05) (0.00834852 1.02774e-10 -0.00162039) (0.00756663 3.48292e-12 -3.2362e-05) (0.0151531 7.99134e-11 2.87845e-06) (0.000218341 -2.87714e-10 -0.00697648) (0.00739585 -3.07837e-11 -0.000357388) (0.00754572 -6.55577e-11 -1.5412e-05) (0.0075523 4.64232e-11 -6.5371e-07) (0.00755257 -1.21553e-11 -4.47314e-09)
0.4           (0.0121086 -1.77473e-11 0.000103094) (0.0151744 -7.27108e-11 -1.92692e-05) (0.00835107 1.0107e-10 -0.00162269) (0.00756803 4.09461e-12 -3.23813e-05) (0.0151588 8.15195e-11 3.06043e-06) (0.000207536 -2.86362e-10 -0.0068892) (0.00739702 -3.05828e-11 -0.000357736) (0.00754711 -6.54763e-11 -1.54177e-05) (0.0075537 4.60349e-11 -6.53559e-07) (0.00755396 -1.23079e-11 -4.55803e-09)
0.425         (0.0122171 -2.12071e-11 0.000106103) (0.0151799 -7.39312e-11 -1.92313e-05) (0.00835361 9.93457e-11 -0.00162496) (0.00756942 4.70751e-12 -3.24003e-05) (0.0151645 8.30685e-11 3.23851e-06) (0.00019636 -2.83758e-10 -0.00680105) (0.00739816 -3.03906e-11 -0.000358082) (0.00754848 -6.53867e-11 -1.54232e-05) (0.00755507 4.56605e-11 -6.53407e-07) (0.00755534 -1.24698e-11 -4.64359e-09)
0.45          (0.01232 -2.44984e-11 0.000108827) (0.0151854 -7.51212e-11 -1.9196e-05) (0.00835614 9.75616e-11 -0.0016272) (0.00757079 5.32228e-12 -3.24193e-05) (0.0151701 8.45683e-11 3.41292e-06) (0.000184714 -2.81026e-10 -0.00671174) (0.0073993 -3.02057e-11 -0.000358427) (0.00754983 -6.52907e-11 -1.54288e-05) (0.00755644 4.52969e-11 -6.53257e-07) (0.0075567 -1.26408e-11 -4.72983e-09)
0.475         (0.0124179 -2.76076e-11 0.000111278) (0.0151907 -7.62735e-11 -1.91626e-05) (0.00835867 9.5678e-11 -0.00162943) (0.00757214 5.94032e-12 -3.24383e-05) (0.0151756 8.60248e-11 3.58389e-06) (0.00017276 -2.79093e-10 -0.00662166) (0.00740041 -3.00269e-11 -0.000358774) (0.00755117 -6.51895e-11 -1.54345e-05) (0.00755778 4.49429e-11 -6.53114e-07) (0.00755805 -1.2821e-11 -4.81676e-09)
0.5           (0.0125112 -3.05238e-11 0.00011347) (0.0151961 -7.73852e-11 -1.91305e-05) (0.00836121 9.36693e-11 -0.00163165) (0.00757348 6.56131e-12 -3.24576e-05) (0.0151811 8.74434e-11 3.7516e-06) (0.000160556 -2.77849e-10 -0.00653094) (0.00740151 -2.98536e-11 -0.000359125) (0.0075525 -6.50843e-11 -1.54403e-05) (0.00755911 4.45963e-11 -6.5298e-07) (0.00755938 -1.30115e-11 -4.90441e-09)
0.525         (0.0126003 -3.32524e-11 0.000115413) (0.0152013 -7.83394e-11 -1.90991e-05) (0.00836374 9.07258e-11 -0.00163388) (0.0075748 7.09611e-12 -3.24773e-05) (0.0151865 8.87583e-11 3.91626e-06) (0.000148037 -2.78432e-10 -0.0064394) (0.0074026 -2.96487e-11 -0.00035948) (0.0075538 -6.49926e-11 -1.54464e-05) (0.00756042 4.42548e-11 -6.52858e-07) (0.00756069 -1.32324e-11 -4.99281e-09)
0.55          (0.0126856 -3.57415e-11 0.00011712) (0.0152065 -7.94101e-11 -1.90679e-05) (0.00836628 8.85273e-11 -0.00163613) (0.0075761 7.72706e-12 -3.24975e-05) (0.0151918 9.01028e-11 4.07802e-06) (0.000135207 -2.78564e-10 -0.00634709) (0.00740366 -2.94667e-11 -0.000359842) (0.00755509 -6.48806e-11 -1.54528e-05) (0.00756172 4.39213e-11 -6.5275e-07) (0.00756199 -1.34543e-11 -5.08193e-09)
0.575         (0.0127674 -3.78404e-11 0.000118603) (0.0152116 -7.90379e-11 -1.90366e-05) (0.00836882 8.39625e-11 -0.0016384) (0.00757739 7.88604e-12 -3.25183e-05) (0.0151971 9.15278e-11 4.23707e-06) (0.000122025 -2.82708e-10 -0.00625392) (0.00740471 -2.9671e-11 -0.00036021) (0.00755637 -6.49147e-11 -1.54595e-05) (0.007563 4.39462e-11 -6.52659e-07) (0.00756327 -1.35164e-11 -5.17118e-09)
0.6           (0.0128458 -4.01122e-11 0.000119873) (0.0152167 -8.15769e-11 -1.90052e-05) (0.00837138 8.36744e-11 -0.00164068) (0.00757867 9.05356e-12 -3.25398e-05) (0.0152023 9.27544e-11 4.39355e-06) (0.000108282 -2.81184e-10 -0.00615891) (0.00740575 -2.92087e-11 -0.000360585) (0.00755763 -6.46167e-11 -1.54665e-05) (0.00756427 4.32819e-11 -6.52583e-07) (0.00756454 -1.38949e-11 -5.2623e-09)
0.625         (0.0129212 -4.19827e-11 0.000120944) (0.0152217 -8.24683e-11 -1.89731e-05) (0.00837395 8.10479e-11 -0.00164301) (0.00757993 9.62682e-12 -3.25621e-05) (0.0152074 9.40263e-11 4.54759e-06) (9.44775e-05 -2.83551e-10 -0.00606332) (0.00740677 -2.89939e-11 -0.000360971) (0.00755888 -6.45097e-11 -1.5474e-05) (0.00756552 4.29877e-11 -6.5253e-07) (0.00756579 -1.41602e-11 -5.35366e-09)
0.65          (0.0129937 -4.36037e-11 0.000121825) (0.0152267 -8.3297e-11 -1.89404e-05) (0.00837652 7.82076e-11 -0.00164536) (0.00758118 1.021e-11 -3.25851e-05) (0.0152125 9.53213e-11 4.69935e-06) (8.06446e-05 -2.86909e-10 -0.00596759) (0.00740777 -2.87481e-11 -0.000361365) (0.00756011 -6.43986e-11 -1.54819e-05) (0.00756676 4.26959e-11 -6.52495e-07) (0.00756703 -1.44413e-11 -5.44576e-09)
0.675         (0.0130635 -4.51417e-11 0.000122528) (0.0152316 -8.40926e-11 -1.89095e-05) (0.00837904 7.68764e-11 -0.00164763) (0.00758241 1.09195e-11 -3.26066e-05) (0.0152176 9.6552e-11 4.84893e-06) (6.72376e-05 -2.89689e-10 -0.00587457) (0.00740876 -2.87419e-11 -0.000361742) (0.00756133 -6.42892e-11 -1.54891e-05) (0.00756798 4.23005e-11 -6.52431e-07) (0.00756825 -1.47116e-11 -5.53832e-09)
0.7           (0.0131307 -4.6444e-11 0.000123065) (0.0152364 -8.51052e-11 -1.88799e-05) (0.00838152 7.48799e-11 -0.00164983) (0.00758363 1.15518e-11 -3.2627e-05) (0.0152226 9.77906e-11 4.99643e-06) (5.41979e-05 -2.92726e-10 -0.00578377) (0.00740975 -2.87229e-11 -0.000362107) (0.00756253 -6.41871e-11 -1.54958e-05) (0.00756919 4.1959e-11 -6.52347e-07) (0.00756946 -1.50139e-11 -5.63144e-09)
0.725         (0.0131956 -4.76192e-11 0.000123445) (0.0152412 -8.60533e-11 -1.88491e-05) (0.00838402 7.20511e-11 -0.00165209) (0.00758484 1.21684e-11 -3.26484e-05) (0.0152275 9.89133e-11 5.14201e-06) (4.0812e-05 -2.95836e-10 -0.0056912) (0.00741073 -2.84779e-11 -0.000362484) (0.00756373 -6.40626e-11 -1.55031e-05) (0.00757039 4.16747e-11 -6.52289e-07) (0.00757066 -1.53243e-11 -5.72529e-09)
0.75          (0.0132582 -4.86108e-11 0.000123678) (0.015246 -8.69919e-11 -1.88172e-05) (0.00838654 6.97006e-11 -0.0016544) (0.00758604 1.28019e-11 -3.26712e-05) (0.0152324 1.00035e-10 5.28578e-06) (2.70435e-05 -2.98575e-10 -0.00559668) (0.00741168 -2.8352e-11 -0.000362876) (0.00756491 -6.39467e-11 -1.5511e-05) (0.00757158 4.13569e-11 -6.5226e-07) (0.00757185 -1.56496e-11 -5.81991e-09)
0.775         (0.0133187 -4.94211e-11 0.000123776) (0.0152507 -8.78954e-11 -1.8785e-05) (0.00838908 6.73279e-11 -0.00165674) (0.00758723 1.34279e-11 -3.26947e-05) (0.0152372 1.01138e-10 5.42784e-06) (1.27338e-05 -3.01986e-10 -0.00550041) (0.00741262 -2.82203e-11 -0.000363276) (0.00756608 -6.3832e-11 -1.55193e-05) (0.00757275 4.1046e-11 -6.52249e-07) (0.00757302 -1.59908e-11 -5.91525e-09)
0.8           (0.0133771 -5.00796e-11 0.000123746) (0.0152553 -8.87861e-11 -1.8753e-05) (0.00839162 6.50116e-11 -0.0016591) (0.0075884 1.40591e-11 -3.27185e-05) (0.015242 1.02208e-10 5.56828e-06) (-9.3562e-07 -3.05688e-10 -0.00540518) (0.00741355 -2.80987e-11 -0.00036368) (0.00756723 -6.37174e-11 -1.55278e-05) (0.00757391 4.0728e-11 -6.52248e-07) (0.00757419 -1.63431e-11 -6.01124e-09)
0.825         (0.0134336 -5.05713e-11 0.000123599) (0.0152599 -8.96607e-11 -1.87215e-05) (0.00839416 6.2662e-11 -0.00166146) (0.00758956 1.46828e-11 -3.27426e-05) (0.0152467 1.03256e-10 5.7072e-06) (-1.41978e-05 -3.09506e-10 -0.0053105) (0.00741446 -2.79701e-11 -0.000364088) (0.00756838 -6.36045e-11 -1.55365e-05) (0.00757507 4.04164e-11 -6.52255e-07) (0.00757534 -1.67108e-11 -6.10788e-09)
0.85          (0.0134883 -5.09066e-11 0.000123343) (0.0152645 -9.0515e-11 -1.86906e-05) (0.00839669 6.03067e-11 -0.00166382) (0.00759071 1.53045e-11 -3.27669e-05) (0.0152514 1.04278e-10 5.8447e-06) (-2.71091e-05 -3.12617e-10 -0.00521635) (0.00741537 -2.78419e-11 -0.000364497) (0.00756951 -6.34927e-11 -1.55453e-05) (0.0075762 4.01072e-11 -6.52267e-07) (0.00757648 -1.70946e-11 -6.20514e-09)
0.875         (0.0135412 -5.10881e-11 0.000122988) (0.015269 -9.13443e-11 -1.8661e-05) (0.00839922 5.79517e-11 -0.00166615) (0.00759185 1.5925e-11 -3.27909e-05) (0.015256 1.05275e-10 5.98088e-06) (-4.00679e-05 -3.15883e-10 -0.00512129) (0.00741626 -2.77183e-11 -0.000364905) (0.00757063 -6.33816e-11 -1.5554e-05) (0.00757733 3.97995e-11 -6.52277e-07) (0.0075776 -1.74937e-11 -6.30299e-09)
0.9           (0.0135925 -5.113e-11 0.00012254) (0.0152735 -9.21998e-11 -1.86303e-05) (0.00840178 5.55746e-11 -0.00166856) (0.00759298 1.65448e-11 -3.28163e-05) (0.0152606 1.06236e-10 6.11583e-06) (-5.31038e-05 -3.16721e-10 -0.00502466) (0.00741714 -2.76004e-11 -0.000365329) (0.00757174 -6.32705e-11 -1.55634e-05) (0.00757845 3.9496e-11 -6.5232e-07) (0.00757872 -1.79079e-11 -6.40158e-09)
0.925         (0.0136421 -5.10289e-11 0.000122008) (0.0152779 -9.30733e-11 -1.85986e-05) (0.00840437 5.34893e-11 -0.00167105) (0.0075941 1.71657e-11 -3.28435e-05) (0.0152652 1.07225e-10 6.24968e-06) (-6.64196e-05 -3.17756e-10 -0.00492575) (0.007418 -2.75325e-11 -0.000365772) (0.00757284 -6.31678e-11 -1.55736e-05) (0.00757956 3.91863e-11 -6.52399e-07) (0.00757983 -1.83436e-11 -6.50094e-09)
0.95          (0.0136903 -5.0805e-11 0.000121399) (0.0152823 -9.38537e-11 -1.85671e-05) (0.00840699 5.10982e-11 -0.00167356) (0.00759521 1.77852e-11 -3.28713e-05) (0.0152697 1.08151e-10 6.38247e-06) (-7.98484e-05 -3.16846e-10 -0.00482647) (0.00741885 -2.74185e-11 -0.000366223) (0.00757393 -6.30576e-11 -1.55843e-05) (0.00758065 3.88774e-11 -6.52494e-07) (0.00758093 -1.87884e-11 -6.60096e-09)
0.975         (0.0137369 -5.03572e-11 0.000120722) (0.0152867 -9.47782e-11 -1.85328e-05) (0.00840967 4.89563e-11 -0.00167623) (0.00759631 1.84197e-11 -3.29022e-05) (0.0152742 1.09058e-10 6.51434e-06) (-9.47304e-05 -3.18292e-10 -0.00472406) (0.00741968 -2.72902e-11 -0.000366707) (0.00757501 -6.2929e-11 -1.55963e-05) (0.00758174 3.86427e-11 -6.52654e-07) (0.00758201 -1.92061e-11 -6.7018e-09)
1             (0.0137822 -4.98945e-11 0.000119982) (0.015291 -9.55147e-11 -1.84987e-05) (0.00841237 4.65882e-11 -0.00167892) (0.0075974 1.90398e-11 -3.29336e-05) (0.0152786 1.09926e-10 6.64534e-06) (-0.000107743 -3.24935e-10 -0.00462183) (0.00742049 -2.71857e-11 -0.000367198) (0.00757608 -6.28205e-11 -1.56087e-05) (0.00758282 3.83268e-11 -6.52826e-07) (0.00758309 -1.96781e-11 -6.80336e-09)
1.025         (0.013826 -4.93001e-11 0.000119186) (0.0152953 -9.62085e-11 -1.84659e-05) (0.00841506 4.4215e-11 -0.00168158) (0.00759848 1.96524e-11 -3.29646e-05) (0.015283 1.1078e-10 6.77554e-06) (-0.00011969 -3.28291e-10 -0.00452048) (0.0074213 -2.70808e-11 -0.000367685) (0.00757714 -6.27133e-11 -1.56209e-05) (0.00758388 3.80111e-11 -6.52992e-07) (0.00758416 -2.01651e-11 -6.90545e-09)
1.05          (0.0138686 -4.86064e-11 0.000118341) (0.0152995 -9.68698e-11 -1.84344e-05) (0.00841774 4.18145e-11 -0.00168422) (0.00759956 2.02641e-11 -3.29954e-05) (0.0152874 1.11608e-10 6.90503e-06) (-0.000131279 -3.31981e-10 -0.00441861) (0.00742209 -2.69762e-11 -0.000368171) (0.00757819 -6.26074e-11 -1.56331e-05) (0.00758494 3.76909e-11 -6.53155e-07) (0.00758522 -2.06686e-11 -7.00808e-09)
1.075         (0.0139099 -4.78146e-11 0.000117453) (0.0153037 -9.7507e-11 -1.84038e-05) (0.00842042 3.93422e-11 -0.00168686) (0.00760062 2.08754e-11 -3.30264e-05) (0.0152917 1.12408e-10 7.03389e-06) (-0.000142708 -3.3803e-10 -0.00431639) (0.00742288 -2.68661e-11 -0.000368659) (0.00757923 -6.25016e-11 -1.56453e-05) (0.00758599 3.73684e-11 -6.53323e-07) (0.00758627 -2.11871e-11 -7.11129e-09)
1.1           (0.0139501 -4.69246e-11 0.000116527) (0.0153079 -9.81336e-11 -1.83746e-05) (0.00842307 3.68353e-11 -0.00168945) (0.00760168 2.14913e-11 -3.30565e-05) (0.015296 1.13188e-10 7.16219e-06) (-0.000153087 -3.43182e-10 -0.00421769) (0.00742367 -2.67549e-11 -0.000369138) (0.00758026 -6.23951e-11 -1.56572e-05) (0.00758703 3.70506e-11 -6.53476e-07) (0.00758731 -2.17171e-11 -7.21495e-09)
1.125         (0.013989 -4.59451e-11 0.000115568) (0.015312 -9.87411e-11 -1.83469e-05) (0.00842569 3.43015e-11 -0.001692) (0.00760272 2.21072e-11 -3.30858e-05) (0.0153002 1.13947e-10 7.29001e-06) (-0.000162379 -3.48572e-10 -0.00412269) (0.00742445 -2.66436e-11 -0.000369608) (0.00758129 -6.22888e-11 -1.56686e-05) (0.00758806 3.67333e-11 -6.53613e-07) (0.00758834 -2.226e-11 -7.31905e-09)
1.15          (0.0140268 -4.48675e-11 0.000114583) (0.0153161 -9.93346e-11 -1.83198e-05) (0.00842832 3.17623e-11 -0.00169454) (0.00760376 2.27185e-11 -3.31151e-05) (0.0153044 1.14689e-10 7.41744e-06) (-0.000171385 -3.5312e-10 -0.00402811) (0.00742523 -2.65301e-11 -0.000370079) (0.0075823 -6.21818e-11 -1.56802e-05) (0.00758909 3.64216e-11 -6.53752e-07) (0.00758936 -2.28158e-11 -7.42368e-09)
1.175         (0.0140636 -4.37117e-11 0.000113575) (0.0153202 -9.99134e-11 -1.82932e-05) (0.00843094 2.92322e-11 -0.00169709) (0.00760479 2.33287e-11 -3.31447e-05) (0.0153086 1.15412e-10 7.54456e-06) (-0.000180453 -3.56112e-10 -0.00393274) (0.00742599 -2.64202e-11 -0.000370554) (0.00758331 -6.20756e-11 -1.56919e-05) (0.0075901 3.61101e-11 -6.53899e-07) (0.00759037 -2.33856e-11 -7.52886e-09)
1.2           (0.0140992 -4.24806e-11 0.00011255) (0.0153243 -1.0048e-10 -1.8267e-05) (0.00843358 2.67421e-11 -0.00169965) (0.00760581 2.39362e-11 -3.31746e-05) (0.0153128 1.16115e-10 7.6714e-06) (-0.000190086 -3.66468e-10 -0.00383728) (0.00742675 -2.63132e-11 -0.000371033) (0.00758431 -6.19702e-11 -1.57037e-05) (0.00759111 3.58022e-11 -6.54054e-07) (0.00759138 -2.3971e-11 -7.63459e-09)
1.225         (0.0141339 -4.1178e-11 0.000111512) (0.0153283 -1.01034e-10 -1.8241e-05) (0.00843622 2.42858e-11 -0.00170222) (0.00760682 2.45426e-11 -3.32049e-05) (0.0153169 1.16796e-10 7.79811e-06) (-0.000198875 -3.6997e-10 -0.00374144) (0.00742749 -2.62087e-11 -0.000371516) (0.0075853 -6.18657e-11 -1.57158e-05) (0.0075921 3.54952e-11 -6.54216e-07) (0.00759238 -2.4571e-11 -7.74083e-09)
1.25          (0.0141676 -3.98135e-11 0.000110464) (0.0153323 -1.01577e-10 -1.82155e-05) (0.00843887 2.18597e-11 -0.00170479) (0.00760783 2.51474e-11 -3.32353e-05) (0.015321 1.17456e-10 7.92474e-06) (-0.000207234 -3.72835e-10 -0.00364501) (0.00742823 -2.61048e-11 -0.000372002) (0.00758629 -6.17621e-11 -1.57279e-05) (0.0075931 3.51893e-11 -6.54384e-07) (0.00759337 -2.51851e-11 -7.8476e-09)
1.275         (0.0142003 -3.84052e-11 0.000109412) (0.0153362 -1.02114e-10 -1.81901e-05) (0.00844151 1.94512e-11 -0.00170737) (0.00760883 2.575e-11 -3.32659e-05) (0.015325 1.18086e-10 8.05136e-06) (-0.000215303 -3.75596e-10 -0.00354839) (0.00742896 -2.6002e-11 -0.000372491) (0.00758726 -6.16592e-11 -1.57402e-05) (0.00759408 3.48839e-11 -6.54557e-07) (0.00759435 -2.58131e-11 -7.95487e-09)
1.3           (0.0142321 -3.69724e-11 0.000108357) (0.0153401 -1.02653e-10 -1.81649e-05) (0.00844417 1.70426e-11 -0.00170996) (0.00760982 2.63502e-11 -3.32969e-05) (0.0153291 1.18679e-10 8.17803e-06) (-0.000223127 -3.77783e-10 -0.00345183) (0.00742969 -2.58998e-11 -0.000372983) (0.00758823 -6.15567e-11 -1.57526e-05) (0.00759505 3.45779e-11 -6.54737e-07) (0.00759533 -2.6455e-11 -8.06265e-09)
1.325         (0.014263 -3.55323e-11 0.000107305) (0.015344 -1.032e-10 -1.81398e-05) (0.00844683 1.46142e-11 -0.00171256) (0.0076108 2.69454e-11 -3.33281e-05) (0.0153331 1.19222e-10 8.30484e-06) (-0.000230721 -3.797e-10 -0.00335491) (0.0074304 -2.57957e-11 -0.000373479) (0.00758919 -6.14546e-11 -1.57652e-05) (0.00759602 3.4268e-11 -6.54924e-07) (0.0075963 -2.71117e-11 -8.17094e-09)
1.35          (0.014293 -3.4044e-11 0.000106258) (0.0153479 -1.03712e-10 -1.81145e-05) (0.00844949 1.21546e-11 -0.00171517) (0.00761178 2.7541e-11 -3.33596e-05) (0.015337 1.19753e-10 8.43184e-06) (-0.000237977 -3.79846e-10 -0.00325782) (0.00743111 -2.56985e-11 -0.00037398) (0.00759015 -6.13511e-11 -1.57779e-05) (0.00759698 3.39557e-11 -6.55118e-07) (0.00759726 -2.77842e-11 -8.27971e-09)
1.375         (0.0143222 -3.25123e-11 0.000105219) (0.0153517 -1.04204e-10 -1.80892e-05) (0.00845216 9.69252e-12 -0.0017178) (0.00761275 2.81239e-11 -3.33915e-05) (0.015341 1.20272e-10 8.55912e-06) (-0.00024528 -3.8271e-10 -0.00316067) (0.0074318 -2.56072e-11 -0.000374484) (0.00759109 -6.12504e-11 -1.57908e-05) (0.00759794 3.36409e-11 -6.55321e-07) (0.00759821 -2.84711e-11 -8.38898e-09)
1.4           (0.0143505 -3.09222e-11 0.000104191) (0.0153555 -1.0467e-10 -1.80638e-05) (0.00845484 7.23967e-12 -0.00172044) (0.00761371 2.86904e-11 -3.34236e-05) (0.0153449 1.2079e-10 8.68673e-06) (-0.00025252 -3.85316e-10 -0.00306349) (0.0074325 -2.55211e-11 -0.000374992) (0.00759203 -6.11549e-11 -1.58039e-05) (0.00759889 3.33237e-11 -6.5553e-07) (0.00759916 -2.91721e-11 -8.49873e-09)
1.425         (0.0143781 -2.92823e-11 0.000103176) (0.0153593 -1.05112e-10 -1.80382e-05) (0.00845752 4.80044e-12 -0.00172308) (0.00761467 2.92524e-11 -3.34561e-05) (0.0153488 1.21299e-10 8.81476e-06) (-0.000259676 -3.84629e-10 -0.00296667) (0.00743318 -2.54348e-11 -0.000375504) (0.00759297 -6.10617e-11 -1.58172e-05) (0.00759983 3.3007e-11 -6.55746e-07) (0.0076001 -2.98872e-11 -8.60895e-09)
1.45          (0.0144048 -2.76173e-11 0.000102177) (0.0153631 -1.0554e-10 -1.80125e-05) (0.0084602 2.36432e-12 -0.00172574) (0.00761562 2.98146e-11 -3.34887e-05) (0.0153526 1.21788e-10 8.94327e-06) (-0.000266555 -3.85587e-10 -0.00287034) (0.00743385 -2.53479e-11 -0.000376018) (0.00759389 -6.09684e-11 -1.58305e-05) (0.00760076 3.26916e-11 -6.55965e-07) (0.00760104 -3.06165e-11 -8.71961e-09)
1.475         (0.0144309 -2.59411e-11 0.000101195) (0.0153668 -1.05955e-10 -1.79867e-05) (0.00846289 -7.3025e-14 -0.0017284) (0.00761656 3.03771e-11 -3.35215e-05) (0.0153565 1.22252e-10 9.07232e-06) (-0.000273365 -3.84662e-10 -0.00277408) (0.00743452 -2.52609e-11 -0.000376535) (0.00759481 -6.08742e-11 -1.58439e-05) (0.00760169 3.2378e-11 -6.5619e-07) (0.00760197 -3.136e-11 -8.8307e-09)
1.5           (0.0144561 -2.42601e-11 0.000100234) (0.0153705 -1.06358e-10 -1.79605e-05) (0.00846559 -2.51265e-12 -0.00173109) (0.0076175 3.09374e-11 -3.35549e-05) (0.0153603 1.22692e-10 9.202e-06) (-0.0002809 -3.84272e-10 -0.00267527) (0.00743518 -2.51737e-11 -0.000377059) (0.00759573 -6.07794e-11 -1.58577e-05) (0.00760261 3.20656e-11 -6.56429e-07) (0.00760289 -3.21176e-11 -8.94227e-09)
1.525         (0.0144807 -2.25819e-11 9.92943e-05) (0.0153742 -1.06638e-10 -1.79338e-05) (0.00846831 -4.64959e-12 -0.00173382) (0.00761843 3.1485e-11 -3.35891e-05) (0.0153641 1.23113e-10 9.33236e-06) (-0.00028926 -3.94537e-10 -0.00257334) (0.00743583 -2.51021e-11 -0.000377592) (0.00759663 -6.06856e-11 -1.58718e-05) (0.00760353 3.17487e-11 -6.56682e-07) (0.0076038 -3.28911e-11 -9.0543e-09)
1.55          (0.0145046 -2.08702e-11 9.8378e-05) (0.0153778 -1.06997e-10 -1.79067e-05) (0.00847104 -7.1326e-12 -0.00173656) (0.00761936 3.20411e-11 -3.36237e-05) (0.0153678 1.23529e-10 9.46346e-06) (-0.00029765 -3.96007e-10 -0.00247067) (0.00743648 -2.50193e-11 -0.00037813) (0.00759754 -6.0589e-11 -1.58862e-05) (0.00760443 3.14433e-11 -6.56946e-07) (0.00760471 -3.36726e-11 -9.16677e-09)
1.575         (0.0145278 -1.94821e-11 9.74863e-05) (0.0153815 -1.0758e-10 -1.78792e-05) (0.00847378 -9.77351e-12 -0.00173933) (0.00762028 3.26279e-11 -3.36587e-05) (0.0153716 1.23678e-10 9.59539e-06) (-0.000305826 -4.00384e-10 -0.00236774) (0.00743711 -2.48153e-11 -0.000378674) (0.00759843 -6.05007e-11 -1.59007e-05) (0.00760534 3.09976e-11 -6.57218e-07) (0.00760562 -3.45062e-11 -9.27979e-09)
1.6           (0.0145503 -1.77532e-11 9.66208e-05) (0.0153851 -1.07908e-10 -1.78512e-05) (0.00847652 -1.21442e-11 -0.00174211) (0.0076212 3.31681e-11 -3.36942e-05) (0.0153753 1.24077e-10 9.72821e-06) (-0.000313539 -4.00823e-10 -0.00226476) (0.00743774 -2.47584e-11 -0.000379222) (0.00759932 -6.04036e-11 -1.59155e-05) (0.00760624 3.07198e-11 -6.57499e-07) (0.00760651 -3.53083e-11 -9.39308e-09)
1.625         (0.0145722 -1.60393e-11 9.57824e-05) (0.0153887 -1.0823e-10 -1.78223e-05) (0.00847928 -1.45421e-11 -0.00174494) (0.00762211 3.37024e-11 -3.37303e-05) (0.015379 1.24453e-10 9.862e-06) (-0.000320925 -3.99916e-10 -0.00216079) (0.00743836 -2.46994e-11 -0.000379779) (0.0076002 -6.03074e-11 -1.59306e-05) (0.00760713 3.0441e-11 -6.57796e-07) (0.00760741 -3.61225e-11 -9.50682e-09)
1.65          (0.0145934 -1.43613e-11 9.49723e-05) (0.0153922 -1.08558e-10 -1.77923e-05) (0.00848207 -1.69738e-11 -0.00174781) (0.00762301 3.42355e-11 -3.37674e-05) (0.0153826 1.24794e-10 9.99682e-06) (-0.000328182 -3.99922e-10 -0.00205548) (0.00743897 -2.463e-11 -0.000380346) (0.00760108 -6.02121e-11 -1.59462e-05) (0.00760801 3.01504e-11 -6.58112e-07) (0.00760829 -3.6955e-11 -9.62103e-09)
1.675         (0.0146141 -1.27132e-11 9.41911e-05) (0.0153958 -1.08884e-10 -1.77615e-05) (0.00848486 -1.94213e-11 -0.00175071) (0.00762391 3.47662e-11 -3.38051e-05) (0.0153863 1.25107e-10 1.01327e-05) (-0.00033529 -4.0007e-10 -0.00194892) (0.00743957 -2.45542e-11 -0.00038092) (0.00760195 -6.01177e-11 -1.5962e-05) (0.00760889 2.98494e-11 -6.58439e-07) (0.00760917 -3.78049e-11 -9.73566e-09)
1.7           (0.0146341 -1.10924e-11 9.34398e-05) (0.0153993 -1.09204e-10 -1.77299e-05) (0.00848767 -2.18782e-11 -0.00175364) (0.00762481 3.52928e-11 -3.38433e-05) (0.0153899 1.25395e-10 1.02698e-05) (-0.000342406 -3.99943e-10 -0.00184014) (0.00744016 -2.44751e-11 -0.000381501) (0.00760282 -6.00239e-11 -1.59782e-05) (0.00760977 2.95428e-11 -6.58778e-07) (0.00761005 -3.86697e-11 -9.8507e-09)
1.725         (0.0146536 -9.4995e-12 9.27188e-05) (0.0154028 -1.09519e-10 -1.76969e-05) (0.0084905 -2.43482e-11 -0.00175662) (0.0076257 3.58141e-11 -3.38826e-05) (0.0153935 1.25662e-10 1.04081e-05) (-0.000349799 -4.00024e-10 -0.00172725) (0.00744075 -2.43934e-11 -0.000382093) (0.00760368 -5.99308e-11 -1.59948e-05) (0.00761064 2.92328e-11 -6.5914e-07) (0.00761092 -3.95487e-11 -9.9662e-09)
1.75          (0.0146724 -7.93465e-12 9.20285e-05) (0.0154063 -1.09828e-10 -1.76621e-05) (0.00849337 -2.68305e-11 -0.00175969) (0.00762658 3.63291e-11 -3.39232e-05) (0.0153971 1.2591e-10 1.05478e-05) (-0.000354533 -4.00161e-10 -0.00161674) (0.00744132 -2.431e-11 -0.000382701) (0.00760454 -5.98388e-11 -1.60121e-05) (0.0076115 2.89206e-11 -6.59529e-07) (0.00761178 -4.04419e-11 -1.00822e-08)
1.775         (0.0146908 -6.33323e-12 9.13693e-05) (0.0154097 -1.1006e-10 -1.76256e-05) (0.00849626 -2.92654e-11 -0.00176282) (0.00762746 3.68484e-11 -3.39651e-05) (0.0154007 1.26195e-10 1.06888e-05) (-0.00035612 -3.99399e-10 -0.00151093) (0.00744188 -2.42381e-11 -0.000383322) (0.00760539 -5.97468e-11 -1.603e-05) (0.00761236 2.8624e-11 -6.59942e-07) (0.00761264 -4.13561e-11 -1.01986e-08)
1.8           (0.0147086 -4.82968e-12 9.07413e-05) (0.0154131 -1.1034e-10 -1.75879e-05) (0.00849917 -3.17456e-11 -0.00176601) (0.00762834 3.73577e-11 -3.40078e-05) (0.0154042 1.26407e-10 1.08313e-05) (-0.000357043 -3.98804e-10 -0.00140602) (0.00744243 -2.41543e-11 -0.000383954) (0.00760623 -5.96557e-11 -1.60484e-05) (0.00761322 2.83097e-11 -6.60374e-07) (0.0076135 -4.22783e-11 -1.03154e-08)
1.825         (0.0147258 -3.3616e-12 9.01447e-05) (0.0154165 -1.10612e-10 -1.75493e-05) (0.0085021 -3.42291e-11 -0.00176923) (0.00762921 3.78617e-11 -3.40513e-05) (0.0154078 1.26603e-10 1.09752e-05) (-0.000358082 -3.97605e-10 -0.00130088) (0.00744297 -2.40704e-11 -0.000384595) (0.00760707 -5.95648e-11 -1.60671e-05) (0.00761407 2.79958e-11 -6.60822e-07) (0.00761435 -4.32139e-11 -1.04326e-08)
1.85          (0.0147425 -1.93186e-12 8.95793e-05) (0.0154199 -1.10877e-10 -1.75097e-05) (0.00850505 -3.67146e-11 -0.0017725) (0.00763008 3.83604e-11 -3.40956e-05) (0.0154113 1.26782e-10 1.11208e-05) (-0.00035925 -3.97173e-10 -0.00119535) (0.0074435 -2.39868e-11 -0.000385244) (0.00760791 -5.94741e-11 -1.60862e-05) (0.00761491 2.76817e-11 -6.61285e-07) (0.00761519 -4.41626e-11 -1.05502e-08)
1.875         (0.0147588 -1.06398e-12 8.90451e-05) (0.0154233 -1.11663e-10 -1.74692e-05) (0.00850801 -4.0392e-11 -0.00177581) (0.00763094 3.89275e-11 -3.41407e-05) (0.0154148 1.26513e-10 1.12681e-05) (-0.000360351 -4.00886e-10 -0.00108967) (0.00744403 -2.36685e-11 -0.000385902) (0.00760874 -5.94051e-11 -1.61056e-05) (0.00761575 2.69995e-11 -6.61764e-07) (0.00761604 -4.52212e-11 -1.06685e-08)